# vtk DataFile Version 3.0
Soluzione Equazione di Poisson 2D
ASCII
DATASET STRUCTURED_POINTS
DIMENSIONS 11 11 1
ORIGIN 0.0 0.0 0.0
SPACING 0.1 0.1 0.0
POINT_DATA 121
SCALARS u double 1
LOOKUP_TABLE default
0
0
0
0
0
0
0
0
0
0
0
0
0.357084
0.577775
0.577775
0.357084
1.42089e-17
-0.357084
-0.577775
-0.577775
-0.357084
0
0
0.577775
0.934859
0.934859
0.577775
2.29904e-17
-0.577775
-0.934859
-0.934859
-0.577775
0
0
0.577775
0.934859
0.934859
0.577775
2.29904e-17
-0.577775
-0.934859
-0.934859
-0.577775
0
0
0.357084
0.577775
0.577775
0.357084
1.42089e-17
-0.357084
-0.577775
-0.577775
-0.357084
0
0
-1.28627e-17
3.73135e-17
2.04072e-17
5.71389e-18
-9.30856e-18
-1.30231e-17
-3.49979e-17
-3.49098e-17
-9.76677e-18
0
0
-0.357084
-0.577775
-0.577775
-0.357084
-1.42089e-17
0.357084
0.577775
0.577775
0.357084
0
0
-0.577775
-0.934859
-0.934859
-0.577775
-2.29904e-17
0.577775
0.934859
0.934859
0.577775
0
0
-0.577775
-0.934859
-0.934859
-0.577775
-2.29904e-17
0.577775
0.934859
0.934859
0.577775
0
0
-0.357084
-0.577775
-0.577775
-0.357084
-1.42089e-17
0.357084
0.577775
0.577775
0.357084
0
0
0
0
0
0
0
0
0
0
0
0
