# vtk DataFile Version 3.0
Soluzione Equazione di Poisson 2D
ASCII
DATASET STRUCTURED_POINTS
DIMENSIONS 256 256 1
ORIGIN 0.0 0.0 0.0
SPACING 0.00392157 0.00392157 0.0
POINT_DATA 65536
SCALARS u double 1
LOOKUP_TABLE default
0
0
0
0
0
0
0
0
0
0
0
0
0
0
0
0
0
0
0
0
0
0
0
0
0
0
0
0
0
0
0
0
0
0
0
0
0
0
0
0
0
0
0
0
0
0
0
0
0
0
0
0
0
0
0
0
0
0
0
0
0
0
0
0
0
0
0
0
0
0
0
0
0
0
0
0
0
0
0
0
0
0
0
0
0
0
0
0
0
0
0
0
0
0
0
0
0
0
0
0
0
0
0
0
0
0
0
0
0
0
0
0
0
0
0
0
0
0
0
0
0
0
0
0
0
0
0
0
0
0
0
0
0
0
0
0
0
0
0
0
0
0
0
0
0
0
0
0
0
0
0
0
0
0
0
0
0
0
0
0
0
0
0
0
0
0
0
0
0
0
0
0
0
0
0
0
0
0
0
0
0
0
0
0
0
0
0
0
0
0
0
0
0
0
0
0
0
0
0
0
0
0
0
0
0
0
0
0
0
0
0
0
0
0
0
0
0
0
0
0
0
0
0
0
0
0
0
0
0
0
0
0
0
0
0
0
0
0
0
0
0
0
0
0
0
0
0
0
0
0
0
0
0
0
0
0
0
0.000606483
0.0012126
0.00181798
0.00242225
0.00302506
0.00362602
0.00422479
0.00482099
0.00541427
0.00600426
0.0065906
0.00717294
0.00775093
0.00832421
0.00889244
0.00945527
0.0100124
0.0105634
0.011108
0.0116458
0.0121766
0.0127
0.0132157
0.0137233
0.0142227
0.0147134
0.0151951
0.0156676
0.0161307
0.0165839
0.0170271
0.0174599
0.0178821
0.0182935
0.0186937
0.0190827
0.01946
0.0198255
0.020179
0.0205202
0.020849
0.0211651
0.0214684
0.0217586
0.0220356
0.0222993
0.0225494
0.0227858
0.0230084
0.023217
0.0234115
0.0235918
0.0237578
0.0239094
0.0240464
0.0241688
0.0242766
0.0243697
0.0244479
0.0245113
0.0245598
0.0245934
0.0246121
0.0246158
0.0246046
0.0245785
0.0245374
0.0244815
0.0244106
0.024325
0.0242246
0.0241095
0.0239797
0.0238354
0.0236766
0.0235034
0.023316
0.0231144
0.0228988
0.0226693
0.022426
0.0221691
0.0218988
0.0216151
0.0213183
0.0210086
0.0206862
0.0203511
0.0200038
0.0196442
0.0192728
0.0188896
0.018495
0.0180892
0.0176723
0.0172448
0.0168068
0.0163585
0.0159004
0.0154326
0.0149554
0.0144691
0.0139741
0.0134705
0.0129588
0.0124392
0.0119121
0.0113778
0.0108365
0.0102886
0.00973455
0.00917455
0.00860898
0.00803818
0.0074625
0.00688229
0.0062979
0.00570969
0.00511802
0.00452323
0.00392571
0.00332579
0.00272386
0.00212028
0.0015154
0.00090961
0.000303265
-0.000303265
-0.00090961
-0.0015154
-0.00212028
-0.00272386
-0.00332579
-0.00392571
-0.00452323
-0.00511802
-0.00570969
-0.0062979
-0.00688229
-0.0074625
-0.00803818
-0.00860898
-0.00917455
-0.00973455
-0.0102886
-0.0108365
-0.0113778
-0.0119121
-0.0124392
-0.0129588
-0.0134705
-0.0139741
-0.0144691
-0.0149554
-0.0154326
-0.0159004
-0.0163585
-0.0168068
-0.0172448
-0.0176723
-0.0180892
-0.018495
-0.0188896
-0.0192728
-0.0196442
-0.0200038
-0.0203511
-0.0206862
-0.0210086
-0.0213183
-0.0216151
-0.0218988
-0.0221691
-0.022426
-0.0226693
-0.0228988
-0.0231144
-0.023316
-0.0235034
-0.0236766
-0.0238354
-0.0239797
-0.0241095
-0.0242246
-0.024325
-0.0244106
-0.0244815
-0.0245374
-0.0245785
-0.0246046
-0.0246158
-0.0246121
-0.0245934
-0.0245598
-0.0245113
-0.0244479
-0.0243697
-0.0242766
-0.0241688
-0.0240464
-0.0239094
-0.0237578
-0.0235918
-0.0234115
-0.023217
-0.0230084
-0.0227858
-0.0225494
-0.0222993
-0.0220356
-0.0217586
-0.0214684
-0.0211651
-0.020849
-0.0205202
-0.020179
-0.0198255
-0.01946
-0.0190827
-0.0186937
-0.0182935
-0.0178821
-0.0174599
-0.0170271
-0.0165839
-0.0161307
-0.0156676
-0.0151951
-0.0147134
-0.0142227
-0.0137233
-0.0132157
-0.0127
-0.0121766
-0.0116458
-0.011108
-0.0105634
-0.0100124
-0.00945527
-0.00889244
-0.00832421
-0.00775093
-0.00717294
-0.0065906
-0.00600426
-0.00541427
-0.00482099
-0.00422479
-0.00362602
-0.00302506
-0.00242225
-0.00181798
-0.0012126
-0.000606483
0
0
0.0012126
0.00242446
0.00363485
0.00484303
0.00604828
0.00724985
0.00844702
0.00963906
0.0108252
0.0120049
0.0131772
0.0143415
0.0154971
0.0166434
0.0177795
0.0189048
0.0200186
0.0211203
0.0222092
0.0232846
0.0243458
0.0253923
0.0264233
0.0274383
0.0284367
0.0294178
0.030381
0.0313258
0.0322515
0.0331577
0.0340438
0.0349092
0.0357534
0.0365759
0.0373761
0.0381537
0.0389082
0.039639
0.0403457
0.041028
0.0416853
0.0423173
0.0429237
0.043504
0.0440579
0.044585
0.045085
0.0455577
0.0460028
0.0464199
0.0468088
0.0471693
0.0475012
0.0478042
0.0480782
0.048323
0.0485385
0.0487245
0.048881
0.0490077
0.0491047
0.0491719
0.0492093
0.0492167
0.0491943
0.0491421
0.0490599
0.0489481
0.0488064
0.0486352
0.0484344
0.0482043
0.0479448
0.0476563
0.0473388
0.0469926
0.0466179
0.0462148
0.0457837
0.0453248
0.0448384
0.0443248
0.0437842
0.0432171
0.0426238
0.0420045
0.0413598
0.0406899
0.0399954
0.0392766
0.0385339
0.0377678
0.0369788
0.0361674
0.035334
0.0344791
0.0336033
0.0327071
0.0317911
0.0308557
0.0299017
0.0289294
0.0279396
0.0269329
0.0259098
0.0248709
0.023817
0.0227486
0.0216664
0.020571
0.0194632
0.0183435
0.0172127
0.0160715
0.0149205
0.0137604
0.012592
0.0114159
0.0102329
0.00904372
0.00784903
0.00664957
0.00544607
0.00423926
0.00302988
0.00181867
0.000606345
-0.000606345
-0.00181867
-0.00302988
-0.00423926
-0.00544607
-0.00664957
-0.00784903
-0.00904372
-0.0102329
-0.0114159
-0.012592
-0.0137604
-0.0149205
-0.0160715
-0.0172127
-0.0183435
-0.0194632
-0.020571
-0.0216664
-0.0227486
-0.023817
-0.0248709
-0.0259098
-0.0269329
-0.0279396
-0.0289294
-0.0299017
-0.0308557
-0.0317911
-0.0327071
-0.0336033
-0.0344791
-0.035334
-0.0361674
-0.0369788
-0.0377678
-0.0385339
-0.0392766
-0.0399954
-0.0406899
-0.0413598
-0.0420045
-0.0426238
-0.0432171
-0.0437842
-0.0443248
-0.0448384
-0.0453248
-0.0457837
-0.0462148
-0.0466179
-0.0469926
-0.0473388
-0.0476563
-0.0479448
-0.0482043
-0.0484344
-0.0486352
-0.0488064
-0.0489481
-0.0490599
-0.0491421
-0.0491943
-0.0492167
-0.0492093
-0.0491719
-0.0491047
-0.0490077
-0.048881
-0.0487245
-0.0485385
-0.048323
-0.0480782
-0.0478042
-0.0475012
-0.0471693
-0.0468088
-0.0464199
-0.0460028
-0.0455577
-0.045085
-0.044585
-0.0440579
-0.043504
-0.0429237
-0.0423173
-0.0416853
-0.041028
-0.0403457
-0.039639
-0.0389082
-0.0381537
-0.0373761
-0.0365759
-0.0357534
-0.0349092
-0.0340438
-0.0331577
-0.0322515
-0.0313258
-0.030381
-0.0294178
-0.0284367
-0.0274383
-0.0264233
-0.0253923
-0.0243458
-0.0232846
-0.0222092
-0.0211203
-0.0200186
-0.0189048
-0.0177795
-0.0166434
-0.0154971
-0.0143415
-0.0131772
-0.0120049
-0.0108252
-0.00963906
-0.00844702
-0.00724985
-0.00604828
-0.00484303
-0.00363485
-0.00242446
-0.0012126
0
0
0.00181798
0.00363485
0.00544952
0.00726087
0.00906782
0.0108693
0.0126641
0.0144513
0.0162297
0.0179982
0.0197558
0.0215014
0.023234
0.0249524
0.0266557
0.0283428
0.0300128
0.0316644
0.0332969
0.0349092
0.0365002
0.0380691
0.0396149
0.0411367
0.0426334
0.0441043
0.0455484
0.0469649
0.0483528
0.0497114
0.0510398
0.0523373
0.0536029
0.054836
0.0560358
0.0572016
0.0583327
0.0594284
0.060488
0.0615108
0.0624963
0.0634439
0.064353
0.065223
0.0660533
0.0668436
0.0675933
0.068302
0.0689692
0.0695946
0.0701777
0.0707181
0.0712157
0.07167
0.0720808
0.0724479
0.0727709
0.0730498
0.0732843
0.0734744
0.0736198
0.0737206
0.0737766
0.0737878
0.0737542
0.0736758
0.0735527
0.0733849
0.0731726
0.0729159
0.0726149
0.0722698
0.0718809
0.0714483
0.0709723
0.0704532
0.0698914
0.0692872
0.0686408
0.0679528
0.0672236
0.0664535
0.0656431
0.0647929
0.0639033
0.0629749
0.0620083
0.061004
0.0599627
0.058885
0.0577716
0.056623
0.0554401
0.0542236
0.0529741
0.0516925
0.0503795
0.0490359
0.0476625
0.0462602
0.0448298
0.0433722
0.0418882
0.0403789
0.038845
0.0372875
0.0357074
0.0341056
0.0324831
0.0308409
0.02918
0.0275014
0.025806
0.024095
0.0223694
0.0206302
0.0188784
0.0171152
0.0153416
0.0135587
0.0117676
0.0099693
0.00816497
0.00635568
0.00454253
0.00272662
0.000909057
-0.000909057
-0.00272662
-0.00454253
-0.00635568
-0.00816497
-0.0099693
-0.0117676
-0.0135587
-0.0153416
-0.0171152
-0.0188784
-0.0206302
-0.0223694
-0.024095
-0.025806
-0.0275014
-0.02918
-0.0308409
-0.0324831
-0.0341056
-0.0357074
-0.0372875
-0.038845
-0.0403789
-0.0418882
-0.0433722
-0.0448298
-0.0462602
-0.0476625
-0.0490359
-0.0503795
-0.0516925
-0.0529741
-0.0542236
-0.0554401
-0.056623
-0.0577716
-0.058885
-0.0599627
-0.061004
-0.0620083
-0.0629749
-0.0639033
-0.0647929
-0.0656431
-0.0664535
-0.0672236
-0.0679528
-0.0686408
-0.0692872
-0.0698914
-0.0704532
-0.0709723
-0.0714483
-0.0718809
-0.0722698
-0.0726149
-0.0729159
-0.0731726
-0.0733849
-0.0735527
-0.0736758
-0.0737542
-0.0737878
-0.0737766
-0.0737206
-0.0736198
-0.0734744
-0.0732843
-0.0730498
-0.0727709
-0.0724479
-0.0720808
-0.07167
-0.0712157
-0.0707181
-0.0701777
-0.0695946
-0.0689692
-0.068302
-0.0675933
-0.0668436
-0.0660533
-0.065223
-0.064353
-0.0634439
-0.0624963
-0.0615108
-0.060488
-0.0594284
-0.0583327
-0.0572016
-0.0560358
-0.054836
-0.0536029
-0.0523373
-0.0510398
-0.0497114
-0.0483528
-0.0469649
-0.0455484
-0.0441043
-0.0426334
-0.0411367
-0.0396149
-0.0380691
-0.0365002
-0.0349092
-0.0332969
-0.0316644
-0.0300128
-0.0283428
-0.0266557
-0.0249524
-0.023234
-0.0215014
-0.0197558
-0.0179982
-0.0162297
-0.0144513
-0.0126641
-0.0108693
-0.00906782
-0.00726087
-0.00544952
-0.00363485
-0.00181798
0
0
0.00242225
0.00484303
0.00726087
0.00967431
0.0120819
0.0144821
0.0168735
0.0192547
0.0216242
0.0239806
0.0263224
0.0286482
0.0309567
0.0332463
0.0355158
0.0377637
0.0399887
0.0421894
0.0443644
0.0465126
0.0486325
0.0507229
0.0527825
0.05481
0.0568043
0.0587641
0.0606882
0.0625755
0.0644248
0.066235
0.0680049
0.0697336
0.0714199
0.0730629
0.0746615
0.0762148
0.0777219
0.0791817
0.0805935
0.0819563
0.0832694
0.084532
0.0857432
0.0869023
0.0880087
0.0890617
0.0900606
0.0910049
0.0918938
0.092727
0.0935039
0.0942241
0.094887
0.0954923
0.0960397
0.0965287
0.0969592
0.0973307
0.0976432
0.0978964
0.0980902
0.0982245
0.0982991
0.098314
0.0982692
0.0981648
0.0980008
0.0977773
0.0974944
0.0971523
0.0967513
0.0962915
0.0957733
0.0951969
0.0945627
0.0938711
0.0931225
0.0923174
0.0914563
0.0905396
0.089568
0.0885419
0.0874622
0.0863293
0.085144
0.083907
0.0826191
0.0812811
0.0798937
0.0784577
0.0769742
0.0754439
0.0738678
0.0722469
0.0705821
0.0688745
0.067125
0.0653348
0.063505
0.0616365
0.0597307
0.0577886
0.0558114
0.0538004
0.0517566
0.0496815
0.0475762
0.045442
0.0432802
0.0410921
0.0388791
0.0366425
0.0343837
0.0321039
0.0298047
0.0274874
0.0251534
0.0228041
0.020441
0.0180655
0.015679
0.013283
0.0108789
0.00846823
0.00605241
0.00363292
0.00121122
-0.00121122
-0.00363292
-0.00605241
-0.00846823
-0.0108789
-0.013283
-0.015679
-0.0180655
-0.020441
-0.0228041
-0.0251534
-0.0274874
-0.0298047
-0.0321039
-0.0343837
-0.0366425
-0.0388791
-0.0410921
-0.0432802
-0.045442
-0.0475762
-0.0496815
-0.0517566
-0.0538004
-0.0558114
-0.0577886
-0.0597307
-0.0616365
-0.063505
-0.0653348
-0.067125
-0.0688745
-0.0705821
-0.0722469
-0.0738678
-0.0754439
-0.0769742
-0.0784577
-0.0798937
-0.0812811
-0.0826191
-0.083907
-0.085144
-0.0863293
-0.0874622
-0.0885419
-0.089568
-0.0905396
-0.0914563
-0.0923174
-0.0931225
-0.0938711
-0.0945627
-0.0951969
-0.0957733
-0.0962915
-0.0967513
-0.0971523
-0.0974944
-0.0977773
-0.0980008
-0.0981648
-0.0982692
-0.098314
-0.0982991
-0.0982245
-0.0980902
-0.0978964
-0.0976432
-0.0973307
-0.0969592
-0.0965287
-0.0960397
-0.0954923
-0.094887
-0.0942241
-0.0935039
-0.092727
-0.0918938
-0.0910049
-0.0900606
-0.0890617
-0.0880087
-0.0869023
-0.0857432
-0.084532
-0.0832694
-0.0819563
-0.0805935
-0.0791817
-0.0777219
-0.0762148
-0.0746615
-0.0730629
-0.0714199
-0.0697336
-0.0680049
-0.066235
-0.0644248
-0.0625755
-0.0606882
-0.0587641
-0.0568043
-0.05481
-0.0527825
-0.0507229
-0.0486325
-0.0465126
-0.0443644
-0.0421894
-0.0399887
-0.0377637
-0.0355158
-0.0332463
-0.0309567
-0.0286482
-0.0263224
-0.0239806
-0.0216242
-0.0192547
-0.0168735
-0.0144821
-0.0120819
-0.00967431
-0.00726087
-0.00484303
-0.00242225
0
0
0.00302506
0.00604828
0.00906782
0.0120819
0.0150886
0.0180861
0.0210727
0.0240465
0.0270056
0.0299484
0.032873
0.0357777
0.0386606
0.04152
0.0443543
0.0471616
0.0499403
0.0526887
0.055405
0.0580878
0.0607353
0.0633459
0.065918
0.0684501
0.0709407
0.0733882
0.0757912
0.0781481
0.0804576
0.0827183
0.0849287
0.0870876
0.0891936
0.0912454
0.0932419
0.0951818
0.0970638
0.098887
0.10065
0.102352
0.103992
0.105569
0.107081
0.108529
0.109911
0.111226
0.112473
0.113652
0.114763
0.115803
0.116773
0.117673
0.118501
0.119257
0.11994
0.120551
0.121089
0.121553
0.121943
0.122259
0.122501
0.122669
0.122762
0.122781
0.122725
0.122594
0.122389
0.12211
0.121757
0.12133
0.120829
0.120255
0.119608
0.118888
0.118096
0.117232
0.116297
0.115292
0.114216
0.113071
0.111858
0.110577
0.109228
0.107813
0.106333
0.104788
0.10318
0.101509
0.0997761
0.0979828
0.0961301
0.094219
0.0922507
0.0902264
0.0881473
0.0860147
0.0838298
0.0815941
0.0793089
0.0769755
0.0745954
0.0721699
0.0697007
0.0671892
0.0646368
0.0620453
0.059416
0.0567507
0.0540509
0.0513184
0.0485546
0.0457614
0.0429404
0.0400934
0.0372219
0.0343279
0.0314131
0.0284792
0.025528
0.0225613
0.0195809
0.0165886
0.0135863
0.0105756
0.00755862
0.00453701
0.00151264
-0.00151264
-0.00453701
-0.00755862
-0.0105756
-0.0135863
-0.0165886
-0.0195809
-0.0225613
-0.025528
-0.0284792
-0.0314131
-0.0343279
-0.0372219
-0.0400934
-0.0429404
-0.0457614
-0.0485546
-0.0513184
-0.0540509
-0.0567507
-0.059416
-0.0620453
-0.0646368
-0.0671892
-0.0697007
-0.0721699
-0.0745954
-0.0769755
-0.0793089
-0.0815941
-0.0838298
-0.0860147
-0.0881473
-0.0902264
-0.0922507
-0.094219
-0.0961301
-0.0979828
-0.0997761
-0.101509
-0.10318
-0.104788
-0.106333
-0.107813
-0.109228
-0.110577
-0.111858
-0.113071
-0.114216
-0.115292
-0.116297
-0.117232
-0.118096
-0.118888
-0.119608
-0.120255
-0.120829
-0.12133
-0.121757
-0.12211
-0.122389
-0.122594
-0.122725
-0.122781
-0.122762
-0.122669
-0.122501
-0.122259
-0.121943
-0.121553
-0.121089
-0.120551
-0.11994
-0.119257
-0.118501
-0.117673
-0.116773
-0.115803
-0.114763
-0.113652
-0.112473
-0.111226
-0.109911
-0.108529
-0.107081
-0.105569
-0.103992
-0.102352
-0.10065
-0.098887
-0.0970638
-0.0951818
-0.0932419
-0.0912454
-0.0891936
-0.0870876
-0.0849287
-0.0827183
-0.0804576
-0.0781481
-0.0757912
-0.0733882
-0.0709407
-0.0684501
-0.065918
-0.0633459
-0.0607353
-0.0580878
-0.055405
-0.0526887
-0.0499403
-0.0471616
-0.0443543
-0.04152
-0.0386606
-0.0357777
-0.032873
-0.0299484
-0.0270056
-0.0240465
-0.0210727
-0.0180861
-0.0150886
-0.0120819
-0.00906782
-0.00604828
-0.00302506
0
0
0.00362602
0.00724985
0.0108693
0.0144821
0.0180861
0.0216792
0.0252591
0.0288236
0.0323707
0.0358981
0.0394037
0.0428854
0.046341
0.0497685
0.0531659
0.0565309
0.0598616
0.063156
0.066412
0.0696277
0.0728011
0.0759304
0.0790135
0.0820487
0.085034
0.0879678
0.0908481
0.0936733
0.0964416
0.0991514
0.101801
0.104389
0.106913
0.109373
0.111766
0.114091
0.116347
0.118532
0.120646
0.122686
0.124651
0.126541
0.128354
0.13009
0.131746
0.133322
0.134818
0.136231
0.137562
0.138809
0.139972
0.14105
0.142042
0.142949
0.143768
0.1445
0.145144
0.145701
0.146168
0.146547
0.146838
0.147039
0.14715
0.147173
0.147106
0.146949
0.146704
0.146369
0.145946
0.145434
0.144833
0.144145
0.143369
0.142506
0.141557
0.140522
0.139401
0.138196
0.136907
0.135535
0.13408
0.132544
0.130928
0.129232
0.127458
0.125606
0.123678
0.121675
0.119598
0.117448
0.115228
0.112937
0.110578
0.108151
0.105659
0.103103
0.100484
0.0978039
0.0950647
0.0922677
0.0894147
0.0865075
0.0835477
0.0805372
0.0774778
0.0743714
0.0712198
0.068025
0.0647889
0.0615134
0.0582007
0.0548525
0.0514711
0.0480584
0.0446166
0.0411477
0.0376537
0.034137
0.0305995
0.0270434
0.0234709
0.0198842
0.0162853
0.0126766
0.00906025
0.00543835
0.00181315
-0.00181315
-0.00543835
-0.00906025
-0.0126766
-0.0162853
-0.0198842
-0.0234709
-0.0270434
-0.0305995
-0.034137
-0.0376537
-0.0411477
-0.0446166
-0.0480584
-0.0514711
-0.0548525
-0.0582007
-0.0615134
-0.0647889
-0.068025
-0.0712198
-0.0743714
-0.0774778
-0.0805372
-0.0835477
-0.0865075
-0.0894147
-0.0922677
-0.0950647
-0.0978039
-0.100484
-0.103103
-0.105659
-0.108151
-0.110578
-0.112937
-0.115228
-0.117448
-0.119598
-0.121675
-0.123678
-0.125606
-0.127458
-0.129232
-0.130928
-0.132544
-0.13408
-0.135535
-0.136907
-0.138196
-0.139401
-0.140522
-0.141557
-0.142506
-0.143369
-0.144145
-0.144833
-0.145434
-0.145946
-0.146369
-0.146704
-0.146949
-0.147106
-0.147173
-0.14715
-0.147039
-0.146838
-0.146547
-0.146168
-0.145701
-0.145144
-0.1445
-0.143768
-0.142949
-0.142042
-0.14105
-0.139972
-0.138809
-0.137562
-0.136231
-0.134818
-0.133322
-0.131746
-0.13009
-0.128354
-0.126541
-0.124651
-0.122686
-0.120646
-0.118532
-0.116347
-0.114091
-0.111766
-0.109373
-0.106913
-0.104389
-0.101801
-0.0991514
-0.0964416
-0.0936733
-0.0908481
-0.0879678
-0.085034
-0.0820487
-0.0790135
-0.0759304
-0.0728011
-0.0696277
-0.066412
-0.063156
-0.0598616
-0.0565309
-0.0531659
-0.0497685
-0.046341
-0.0428854
-0.0394037
-0.0358981
-0.0323707
-0.0288236
-0.0252591
-0.0216792
-0.0180861
-0.0144821
-0.0108693
-0.00724985
-0.00362602
0
0
0.00422479
0.00844702
0.0126641
0.0168735
0.0210727
0.0252591
0.0294301
0.0335833
0.0377161
0.0418259
0.0459104
0.0499671
0.0539933
0.0579868
0.0619451
0.0658658
0.0697466
0.0735849
0.0773786
0.0811253
0.0848228
0.0884688
0.092061
0.0955974
0.0990757
0.102494
0.10585
0.109142
0.112367
0.115524
0.118611
0.121626
0.124568
0.127433
0.130222
0.132931
0.135559
0.138105
0.140568
0.142945
0.145235
0.147437
0.14955
0.151571
0.153501
0.155338
0.15708
0.158727
0.160277
0.161731
0.163086
0.164342
0.165498
0.166554
0.167508
0.168361
0.169112
0.16976
0.170305
0.170747
0.171085
0.171319
0.171449
0.171475
0.171397
0.171215
0.170929
0.170539
0.170046
0.169449
0.16875
0.167948
0.167044
0.166038
0.164932
0.163726
0.16242
0.161016
0.159514
0.157915
0.156221
0.154431
0.152548
0.150572
0.148505
0.146347
0.144101
0.141767
0.139347
0.136843
0.134255
0.131586
0.128837
0.12601
0.123106
0.120128
0.117077
0.113954
0.110763
0.107504
0.10418
0.100792
0.097344
0.0938363
0.0902718
0.0866524
0.0829804
0.079258
0.0754875
0.0716712
0.0678113
0.0639103
0.0599705
0.0559943
0.0519841
0.0479424
0.0438715
0.039774
0.0356524
0.0315091
0.0273467
0.0231676
0.0189745
0.0147699
0.0105564
0.00633638
0.00211256
-0.00211256
-0.00633638
-0.0105564
-0.0147699
-0.0189745
-0.0231676
-0.0273467
-0.0315091
-0.0356524
-0.039774
-0.0438715
-0.0479424
-0.0519841
-0.0559943
-0.0599705
-0.0639103
-0.0678113
-0.0716712
-0.0754875
-0.079258
-0.0829804
-0.0866524
-0.0902718
-0.0938363
-0.097344
-0.100792
-0.10418
-0.107504
-0.110763
-0.113954
-0.117077
-0.120128
-0.123106
-0.12601
-0.128837
-0.131586
-0.134255
-0.136843
-0.139347
-0.141767
-0.144101
-0.146347
-0.148505
-0.150572
-0.152548
-0.154431
-0.156221
-0.157915
-0.159514
-0.161016
-0.16242
-0.163726
-0.164932
-0.166038
-0.167044
-0.167948
-0.16875
-0.169449
-0.170046
-0.170539
-0.170929
-0.171215
-0.171397
-0.171475
-0.171449
-0.171319
-0.171085
-0.170747
-0.170305
-0.16976
-0.169112
-0.168361
-0.167508
-0.166554
-0.165498
-0.164342
-0.163086
-0.161731
-0.160277
-0.158727
-0.15708
-0.155338
-0.153501
-0.151571
-0.14955
-0.147437
-0.145235
-0.142945
-0.140568
-0.138105
-0.135559
-0.132931
-0.130222
-0.127433
-0.124568
-0.121626
-0.118611
-0.115524
-0.112367
-0.109142
-0.10585
-0.102494
-0.0990757
-0.0955974
-0.092061
-0.0884688
-0.0848228
-0.0811253
-0.0773786
-0.0735849
-0.0697466
-0.0658658
-0.0619451
-0.0579868
-0.0539933
-0.0499671
-0.0459104
-0.0418259
-0.0377161
-0.0335833
-0.0294301
-0.0252591
-0.0210727
-0.0168735
-0.0126641
-0.00844702
-0.00422479
0
0
0.00482099
0.00963906
0.0144513
0.0192547
0.0240465
0.0288236
0.0335833
0.0383225
0.0430385
0.0477284
0.0523893
0.0570184
0.0616129
0.0661699
0.0706868
0.0751608
0.0795892
0.0839692
0.0882983
0.0925737
0.096793
0.100953
0.105053
0.109088
0.113057
0.116958
0.120787
0.124544
0.128224
0.131827
0.13535
0.13879
0.142147
0.145417
0.148598
0.15169
0.154689
0.157595
0.160405
0.163117
0.165731
0.168243
0.170654
0.172961
0.175163
0.177259
0.179247
0.181126
0.182896
0.184554
0.1861
0.187534
0.188853
0.190058
0.191147
0.192121
0.192977
0.193717
0.194339
0.194843
0.195228
0.195496
0.195644
0.195674
0.195585
0.195377
0.19505
0.194605
0.194042
0.193362
0.192563
0.191648
0.190617
0.18947
0.188208
0.186831
0.185341
0.183739
0.182025
0.1802
0.178267
0.176224
0.174075
0.171821
0.169462
0.167
0.164436
0.161773
0.159012
0.156154
0.153201
0.150156
0.147019
0.143793
0.140479
0.13708
0.133599
0.130036
0.126394
0.122675
0.118882
0.115016
0.111081
0.107079
0.103011
0.0988807
0.0946905
0.0904429
0.0861403
0.0817854
0.0773809
0.0729294
0.0684336
0.0638963
0.0593201
0.054708
0.0500627
0.0453869
0.0406836
0.0359556
0.0312058
0.026437
0.0216522
0.0168543
0.0120461
0.00723057
0.00241068
-0.00241068
-0.00723057
-0.0120461
-0.0168543
-0.0216522
-0.026437
-0.0312058
-0.0359556
-0.0406836
-0.0453869
-0.0500627
-0.054708
-0.0593201
-0.0638963
-0.0684336
-0.0729294
-0.0773809
-0.0817854
-0.0861403
-0.0904429
-0.0946905
-0.0988807
-0.103011
-0.107079
-0.111081
-0.115016
-0.118882
-0.122675
-0.126394
-0.130036
-0.133599
-0.13708
-0.140479
-0.143793
-0.147019
-0.150156
-0.153201
-0.156154
-0.159012
-0.161773
-0.164436
-0.167
-0.169462
-0.171821
-0.174075
-0.176224
-0.178267
-0.1802
-0.182025
-0.183739
-0.185341
-0.186831
-0.188208
-0.18947
-0.190617
-0.191648
-0.192563
-0.193362
-0.194042
-0.194605
-0.19505
-0.195377
-0.195585
-0.195674
-0.195644
-0.195496
-0.195228
-0.194843
-0.194339
-0.193717
-0.192977
-0.192121
-0.191147
-0.190058
-0.188853
-0.187534
-0.1861
-0.184554
-0.182896
-0.181126
-0.179247
-0.177259
-0.175163
-0.172961
-0.170654
-0.168243
-0.165731
-0.163117
-0.160405
-0.157595
-0.154689
-0.15169
-0.148598
-0.145417
-0.142147
-0.13879
-0.13535
-0.131827
-0.128224
-0.124544
-0.120787
-0.116958
-0.113057
-0.109088
-0.105053
-0.100953
-0.096793
-0.0925737
-0.0882983
-0.0839692
-0.0795892
-0.0751608
-0.0706868
-0.0661699
-0.0616129
-0.0570184
-0.0523893
-0.0477284
-0.0430385
-0.0383225
-0.0335833
-0.0288236
-0.0240465
-0.0192547
-0.0144513
-0.00963906
-0.00482099
0
0
0.00541427
0.0108252
0.0162297
0.0216242
0.0270056
0.0323707
0.0377161
0.0430385
0.0483349
0.0536019
0.0588364
0.0640351
0.069195
0.0743129
0.0793856
0.0844102
0.0893835
0.0943025
0.0991643
0.103966
0.108704
0.113377
0.117981
0.122513
0.12697
0.131351
0.135652
0.13987
0.144004
0.14805
0.152006
0.15587
0.159639
0.163312
0.166885
0.170357
0.173726
0.176989
0.180144
0.18319
0.186126
0.188948
0.191655
0.194246
0.196719
0.199073
0.201305
0.203416
0.205403
0.207265
0.209002
0.210612
0.212093
0.213446
0.21467
0.215763
0.216725
0.217556
0.218254
0.21882
0.219253
0.219553
0.21972
0.219753
0.219653
0.21942
0.219053
0.218554
0.217921
0.217157
0.21626
0.215233
0.214074
0.212786
0.211369
0.209823
0.208149
0.20635
0.204425
0.202376
0.200204
0.197911
0.195497
0.192965
0.190316
0.187551
0.184672
0.181681
0.17858
0.17537
0.172054
0.168634
0.165111
0.161488
0.157767
0.15395
0.150039
0.146038
0.141948
0.137771
0.133511
0.12917
0.124751
0.120256
0.115687
0.111049
0.106343
0.101573
0.0967408
0.09185
0.0869034
0.0819041
0.0768551
0.0717594
0.0666201
0.0614404
0.0562234
0.0509723
0.0456902
0.0403804
0.035046
0.0296904
0.0243168
0.0189284
0.0135285
0.00812037
0.00270734
-0.00270734
-0.00812037
-0.0135285
-0.0189284
-0.0243168
-0.0296904
-0.035046
-0.0403804
-0.0456902
-0.0509723
-0.0562234
-0.0614404
-0.0666201
-0.0717594
-0.0768551
-0.0819041
-0.0869034
-0.09185
-0.0967408
-0.101573
-0.106343
-0.111049
-0.115687
-0.120256
-0.124751
-0.12917
-0.133511
-0.137771
-0.141948
-0.146038
-0.150039
-0.15395
-0.157767
-0.161488
-0.165111
-0.168634
-0.172054
-0.17537
-0.17858
-0.181681
-0.184672
-0.187551
-0.190316
-0.192965
-0.195497
-0.197911
-0.200204
-0.202376
-0.204425
-0.20635
-0.208149
-0.209823
-0.211369
-0.212786
-0.214074
-0.215233
-0.21626
-0.217157
-0.217921
-0.218554
-0.219053
-0.21942
-0.219653
-0.219753
-0.21972
-0.219553
-0.219253
-0.21882
-0.218254
-0.217556
-0.216725
-0.215763
-0.21467
-0.213446
-0.212093
-0.210612
-0.209002
-0.207265
-0.205403
-0.203416
-0.201305
-0.199073
-0.196719
-0.194246
-0.191655
-0.188948
-0.186126
-0.18319
-0.180144
-0.176989
-0.173726
-0.170357
-0.166885
-0.163312
-0.159639
-0.15587
-0.152006
-0.14805
-0.144004
-0.13987
-0.135652
-0.131351
-0.12697
-0.122513
-0.117981
-0.113377
-0.108704
-0.103966
-0.0991643
-0.0943025
-0.0893835
-0.0844102
-0.0793856
-0.0743129
-0.069195
-0.0640351
-0.0588364
-0.0536019
-0.0483349
-0.0430385
-0.0377161
-0.0323707
-0.0270056
-0.0216242
-0.0162297
-0.0108252
-0.00541427
0
0
0.00600426
0.0120049
0.0179982
0.0239806
0.0299484
0.0358981
0.0418259
0.0477284
0.0536019
0.0594429
0.0652477
0.071013
0.0767351
0.0824107
0.0880362
0.0936083
0.0991235
0.104579
0.10997
0.115295
0.12055
0.125731
0.130837
0.135863
0.140806
0.145664
0.150433
0.155112
0.159696
0.164183
0.16857
0.172855
0.177035
0.181108
0.18507
0.188921
0.192656
0.196275
0.199774
0.203153
0.206407
0.209537
0.212539
0.215413
0.218155
0.220765
0.223241
0.225582
0.227786
0.229851
0.231777
0.233562
0.235205
0.236705
0.238062
0.239275
0.240341
0.241263
0.242037
0.242665
0.243145
0.243478
0.243663
0.2437
0.243589
0.24333
0.242923
0.242369
0.241668
0.24082
0.239826
0.238687
0.237402
0.235973
0.234401
0.232687
0.230831
0.228836
0.226701
0.224429
0.22202
0.219477
0.2168
0.213992
0.211054
0.207988
0.204796
0.201479
0.19804
0.19448
0.190803
0.18701
0.183103
0.179085
0.174958
0.170725
0.166389
0.161951
0.157416
0.152784
0.14806
0.143246
0.138345
0.13336
0.128294
0.12315
0.117931
0.112641
0.107283
0.101859
0.0963732
0.0908291
0.0852299
0.0795789
0.0738797
0.0681355
0.06235
0.0565267
0.050669
0.0447806
0.038865
0.0329257
0.0269665
0.020991
0.0150027
0.00900524
0.00300236
-0.00300236
-0.00900524
-0.0150027
-0.020991
-0.0269665
-0.0329257
-0.038865
-0.0447806
-0.050669
-0.0565267
-0.06235
-0.0681355
-0.0738797
-0.0795789
-0.0852299
-0.0908291
-0.0963732
-0.101859
-0.107283
-0.112641
-0.117931
-0.12315
-0.128294
-0.13336
-0.138345
-0.143246
-0.14806
-0.152784
-0.157416
-0.161951
-0.166389
-0.170725
-0.174958
-0.179085
-0.183103
-0.18701
-0.190803
-0.19448
-0.19804
-0.201479
-0.204796
-0.207988
-0.211054
-0.213992
-0.2168
-0.219477
-0.22202
-0.224429
-0.226701
-0.228836
-0.230831
-0.232687
-0.234401
-0.235973
-0.237402
-0.238687
-0.239826
-0.24082
-0.241668
-0.242369
-0.242923
-0.24333
-0.243589
-0.2437
-0.243663
-0.243478
-0.243145
-0.242665
-0.242037
-0.241263
-0.240341
-0.239275
-0.238062
-0.236705
-0.235205
-0.233562
-0.231777
-0.229851
-0.227786
-0.225582
-0.223241
-0.220765
-0.218155
-0.215413
-0.212539
-0.209537
-0.206407
-0.203153
-0.199774
-0.196275
-0.192656
-0.188921
-0.18507
-0.181108
-0.177035
-0.172855
-0.16857
-0.164183
-0.159696
-0.155112
-0.150433
-0.145664
-0.140806
-0.135863
-0.130837
-0.125731
-0.12055
-0.115295
-0.10997
-0.104579
-0.0991235
-0.0936083
-0.0880362
-0.0824107
-0.0767351
-0.071013
-0.0652477
-0.0594429
-0.0536019
-0.0477284
-0.0418259
-0.0358981
-0.0299484
-0.0239806
-0.0179982
-0.0120049
-0.00600426
0
0
0.0065906
0.0131772
0.0197558
0.0263224
0.032873
0.0394037
0.0459104
0.0523893
0.0588364
0.0652477
0.0716195
0.0779477
0.0842286
0.0904584
0.0966333
0.10275
0.108803
0.114791
0.120709
0.126554
0.132322
0.13801
0.143614
0.14913
0.154556
0.159889
0.165124
0.170259
0.175291
0.180216
0.185032
0.189735
0.194323
0.198794
0.203143
0.20737
0.21147
0.215442
0.219283
0.222991
0.226564
0.229999
0.233295
0.236449
0.239459
0.242324
0.245042
0.247611
0.25003
0.252297
0.254411
0.25637
0.258174
0.259821
0.26131
0.262641
0.263812
0.264823
0.265673
0.266362
0.266889
0.267255
0.267458
0.267498
0.267376
0.267092
0.266646
0.266038
0.265268
0.264338
0.263246
0.261995
0.260585
0.259017
0.257292
0.25541
0.253373
0.251182
0.248839
0.246345
0.243702
0.24091
0.237972
0.23489
0.231665
0.228299
0.224795
0.221154
0.217379
0.213472
0.209436
0.205272
0.200984
0.196573
0.192044
0.187398
0.182638
0.177767
0.172788
0.167704
0.162519
0.157234
0.151855
0.146383
0.140822
0.135176
0.129448
0.123641
0.117759
0.111806
0.105784
0.099699
0.093553
0.0873502
0.0810943
0.0747893
0.0684388
0.0620468
0.0556171
0.0491536
0.0426603
0.0361411
0.0296
0.0230408
0.0164677
0.00988465
0.00329555
-0.00329555
-0.00988465
-0.0164677
-0.0230408
-0.0296
-0.0361411
-0.0426603
-0.0491536
-0.0556171
-0.0620468
-0.0684388
-0.0747893
-0.0810943
-0.0873502
-0.093553
-0.099699
-0.105784
-0.111806
-0.117759
-0.123641
-0.129448
-0.135176
-0.140822
-0.146383
-0.151855
-0.157234
-0.162519
-0.167704
-0.172788
-0.177767
-0.182638
-0.187398
-0.192044
-0.196573
-0.200984
-0.205272
-0.209436
-0.213472
-0.217379
-0.221154
-0.224795
-0.228299
-0.231665
-0.23489
-0.237972
-0.24091
-0.243702
-0.246345
-0.248839
-0.251182
-0.253373
-0.25541
-0.257292
-0.259017
-0.260585
-0.261995
-0.263246
-0.264338
-0.265268
-0.266038
-0.266646
-0.267092
-0.267376
-0.267498
-0.267458
-0.267255
-0.266889
-0.266362
-0.265673
-0.264823
-0.263812
-0.262641
-0.26131
-0.259821
-0.258174
-0.25637
-0.254411
-0.252297
-0.25003
-0.247611
-0.245042
-0.242324
-0.239459
-0.236449
-0.233295
-0.229999
-0.226564
-0.222991
-0.219283
-0.215442
-0.21147
-0.20737
-0.203143
-0.198794
-0.194323
-0.189735
-0.185032
-0.180216
-0.175291
-0.170259
-0.165124
-0.159889
-0.154556
-0.14913
-0.143614
-0.13801
-0.132322
-0.126554
-0.120709
-0.114791
-0.108803
-0.10275
-0.0966333
-0.0904584
-0.0842286
-0.0779477
-0.0716195
-0.0652477
-0.0588364
-0.0523893
-0.0459104
-0.0394037
-0.032873
-0.0263224
-0.0197558
-0.0131772
-0.0065906
0
0
0.00717294
0.0143415
0.0215014
0.0286482
0.0357777
0.0428854
0.0499671
0.0570184
0.0640351
0.071013
0.0779477
0.0848351
0.091671
0.0984513
0.105172
0.111828
0.118417
0.124934
0.131375
0.137736
0.144014
0.150204
0.156303
0.162307
0.168213
0.174016
0.179714
0.185303
0.190779
0.19614
0.201381
0.2065
0.211494
0.216359
0.221093
0.225693
0.230155
0.234478
0.238659
0.242695
0.246583
0.250322
0.253909
0.257341
0.260618
0.263736
0.266694
0.26949
0.272122
0.27459
0.27689
0.279023
0.280986
0.282778
0.284399
0.285848
0.287122
0.288223
0.289148
0.289898
0.290472
0.290869
0.29109
0.291134
0.291002
0.290692
0.290207
0.289545
0.288707
0.287694
0.286507
0.285145
0.28361
0.281904
0.280026
0.277978
0.275761
0.273377
0.270827
0.268112
0.265235
0.262197
0.258999
0.255644
0.252134
0.248471
0.244658
0.240695
0.236587
0.232335
0.227941
0.22341
0.218743
0.213943
0.209013
0.203956
0.198775
0.193474
0.188055
0.182522
0.176879
0.171128
0.165273
0.159317
0.153265
0.14712
0.140886
0.134566
0.128164
0.121685
0.115132
0.108508
0.101819
0.0950684
0.0882598
0.0813976
0.074486
0.0675292
0.0605314
0.0534968
0.0464297
0.0393345
0.0322154
0.0250767
0.0179228
0.010758