# vtk DataFile Version 3.0
Soluzione Equazione di Poisson 2D
ASCII
DATASET STRUCTURED_POINTS
DIMENSIONS 200 200 1
ORIGIN 0.0 0.0 0.0
SPACING 0.00502513 0.00502513 0.0
POINT_DATA 40000
SCALARS u double 1
LOOKUP_TABLE default
0
0
0
0
0
0
0
0
0
0
0
0
0
0
0
0
0
0
0
0
0
0
0
0
0
0
0
0
0
0
0
0
0
0
0
0
0
0
0
0
0
0
0
0
0
0
0
0
0
0
0
0
0
0
0
0
0
0
0
0
0
0
0
0
0
0
0
0
0
0
0
0
0
0
0
0
0
0
0
0
0
0
0
0
0
0
0
0
0
0
0
0
0
0
0
0
0
0
0
0
0
0
0
0
0
0
0
0
0
0
0
0
0
0
0
0
0
0
0
0
0
0
0
0
0
0
0
0
0
0
0
0
0
0
0
0
0
0
0
0
0
0
0
0
0
0
0
0
0
0
0
0
0
0
0
0
0
0
0
0
0
0
0
0
0
0
0
0
0
0
0
0
0
0
0
0
0
0
0
0
0
0
0
0
0
0
0
0
0
0
0
0
0
0
0
0
0
0
0
0
0
0.000996092
0.00199119
0.00298431
0.00397445
0.00496062
0.00594186
0.00691717
0.00788558
0.00884614
0.00979787
0.0107398
0.0116711
0.0125907
0.0134978
0.0143914
0.0152707
0.0161348
0.0169827
0.0178138
0.0186271
0.0194218
0.0201972
0.0209524
0.0216867
0.0223994
0.0230898
0.0237572
0.0244009
0.0250203
0.0256147
0.0261836
0.0267264
0.0272426
0.0277316
0.0281929
0.0286262
0.0290309
0.0294067
0.0297532
0.03007
0.0303568
0.0306134
0.0308394
0.0310347
0.0311991
0.0313324
0.0314344
0.0315052
0.0315445
0.0315523
0.0315287
0.0314737
0.0313873
0.0312697
0.0311208
0.0309409
0.0307302
0.0304889
0.0302171
0.0299153
0.0295836
0.0292224
0.0288321
0.0284131
0.0279657
0.0274905
0.0269879
0.0264583
0.0259024
0.0253207
0.0247137
0.0240821
0.0234264
0.0227475
0.0220458
0.0213222
0.0205773
0.0198119
0.0190268
0.0182227
0.0174004
0.0165608
0.0157047
0.0148329
0.0139464
0.0130459
0.0121324
0.0112069
0.0102701
0.00932317
0.0083669
0.0074023
0.00643031
0.00545192
0.00446809
0.00347981
0.00248806
0.00149383
0.000498108
-0.000498108
-0.00149383
-0.00248806
-0.00347981
-0.00446809
-0.00545192
-0.00643031
-0.0074023
-0.0083669
-0.00932317
-0.0102701
-0.0112069
-0.0121324
-0.0130459
-0.0139464
-0.0148329
-0.0157047
-0.0165608
-0.0174004
-0.0182227
-0.0190268
-0.0198119
-0.0205773
-0.0213222
-0.0220458
-0.0227475
-0.0234264
-0.0240821
-0.0247137
-0.0253207
-0.0259024
-0.0264583
-0.0269879
-0.0274905
-0.0279657
-0.0284131
-0.0288321
-0.0292224
-0.0295836
-0.0299153
-0.0302171
-0.0304889
-0.0307302
-0.0309409
-0.0311208
-0.0312697
-0.0313873
-0.0314737
-0.0315287
-0.0315523
-0.0315445
-0.0315052
-0.0314344
-0.0313324
-0.0311991
-0.0310347
-0.0308394
-0.0306134
-0.0303568
-0.03007
-0.0297532
-0.0294067
-0.0290309
-0.0286262
-0.0281929
-0.0277316
-0.0272426
-0.0267264
-0.0261836
-0.0256147
-0.0250203
-0.0244009
-0.0237572
-0.0230898
-0.0223994
-0.0216867
-0.0209524
-0.0201972
-0.0194218
-0.0186271
-0.0178138
-0.0169827
-0.0161348
-0.0152707
-0.0143914
-0.0134978
-0.0125907
-0.0116711
-0.0107398
-0.00979787
-0.00884614
-0.00788558
-0.00691717
-0.00594186
-0.00496062
-0.00397445
-0.00298431
-0.00199119
-0.000996092
0
0
0.00199119
0.0039804
0.00596564
0.00794493
0.0099163
0.0118778
0.0138274
0.0157633
0.0176835
0.019586
0.021469
0.0233306
0.0251689
0.0269822
0.0287685
0.0305262
0.0322535
0.0339486
0.0356098
0.0372356
0.0388242
0.0403742
0.0418839
0.0433518
0.0447766
0.0461567
0.0474908
0.0487775
0.0500156
0.0512039
0.0523411
0.0534262
0.054458
0.0554355
0.0563578
0.0572238
0.0580329
0.0587841
0.0594766
0.0601099
0.0606833
0.0611962
0.0616481
0.0620385
0.0623671
0.0626336
0.0628376
0.0629789
0.0630575
0.0630732
0.0630261
0.0629161
0.0627434
0.0625081
0.0622106
0.061851
0.0614298
0.0609474
0.0604042
0.0598007
0.0591377
0.0584157
0.0576355
0.0567979
0.0559036
0.0549536
0.0539488
0.0528903
0.051779
0.0506161
0.0494027
0.0481401
0.0468295
0.0454723
0.0440697
0.0426232
0.0411342
0.0396041
0.0380347
0.0364272
0.0347835
0.0331051
0.0313938
0.0296511
0.0278788
0.0260788
0.0242528
0.0224026
0.02053
0.018637
0.0167255
0.0147972
0.0128542
0.0108984
0.00893173
0.00695615
0.00497364
0.00298617
0.00099572
-0.00099572
-0.00298617
-0.00497364
-0.00695615
-0.00893173
-0.0108984
-0.0128542
-0.0147972
-0.0167255
-0.018637
-0.02053
-0.0224026
-0.0242528
-0.0260788
-0.0278788
-0.0296511
-0.0313938
-0.0331051
-0.0347835
-0.0364272
-0.0380347
-0.0396041
-0.0411342
-0.0426232
-0.0440697
-0.0454723
-0.0468295
-0.0481401
-0.0494027
-0.0506161
-0.051779
-0.0528903
-0.0539488
-0.0549536
-0.0559036
-0.0567979
-0.0576355
-0.0584157
-0.0591377
-0.0598007
-0.0604042
-0.0609474
-0.0614298
-0.061851
-0.0622106
-0.0625081
-0.0627434
-0.0629161
-0.0630261
-0.0630732
-0.0630575
-0.0629789
-0.0628376
-0.0626336
-0.0623671
-0.0620385
-0.0616481
-0.0611962
-0.0606833
-0.0601099
-0.0594766
-0.0587841
-0.0580329
-0.0572238
-0.0563578
-0.0554355
-0.054458
-0.0534262
-0.0523411
-0.0512039
-0.0500156
-0.0487775
-0.0474908
-0.0461567
-0.0447766
-0.0433518
-0.0418839
-0.0403742
-0.0388242
-0.0372356
-0.0356098
-0.0339486
-0.0322535
-0.0305262
-0.0287685
-0.0269822
-0.0251689
-0.0233306
-0.021469
-0.019586
-0.0176835
-0.0157633
-0.0138274
-0.0118778
-0.0099163
-0.00794493
-0.00596564
-0.0039804
-0.00199119
0
0
0.00298431
0.00596564
0.00894102
0.0119075
0.0148621
0.0178019
0.0207239
0.0236253
0.0265031
0.0293546
0.0321767
0.0349668
0.037722
0.0404396
0.043117
0.0457513
0.04834
0.0508805
0.0533704
0.055807
0.058188
0.060511
0.0627736
0.0649737
0.067109
0.0691775
0.071177
0.0731055
0.0749611
0.076742
0.0784465
0.0800727
0.0816191
0.0830842
0.0844664
0.0857644
0.086977
0.0881028
0.0891408
0.09009
0.0909494
0.0917181
0.0923953
0.0929805
0.093473
0.0938723
0.094178
0.0943899
0.0945077
0.0945312
0.0944605
0.0942957
0.0940369
0.0936843
0.0932384
0.0926995
0.0920682
0.0913451
0.090531
0.0896266
0.0886329
0.0875508
0.0863815
0.085126
0.0837857
0.0823619
0.080856
0.0792695
0.0776039
0.075861
0.0740425
0.0721502
0.070186
0.0681518
0.0660496
0.0638816
0.06165
0.0593569
0.0570046
0.0545955
0.052132
0.0496165
0.0470515
0.0444397
0.0417835
0.0390857
0.0363489
0.0335759
0.0307695
0.0279323
0.0250674
0.0221774
0.0192653
0.016334
0.0133865
0.0104256
0.00745426
0.00447553
0.00149234
-0.00149234
-0.00447553
-0.00745426
-0.0104256
-0.0133865
-0.016334
-0.0192653
-0.0221774
-0.0250674
-0.0279323
-0.0307695
-0.0335759
-0.0363489
-0.0390857
-0.0417835
-0.0444397
-0.0470515
-0.0496165
-0.052132
-0.0545955
-0.0570046
-0.0593569
-0.06165
-0.0638816
-0.0660496
-0.0681518
-0.070186
-0.0721502
-0.0740425
-0.075861
-0.0776039
-0.0792695
-0.080856
-0.0823619
-0.0837857
-0.085126
-0.0863815
-0.0875508
-0.0886329
-0.0896266
-0.090531
-0.0913451
-0.0920682
-0.0926995
-0.0932384
-0.0936843
-0.0940369
-0.0942957
-0.0944605
-0.0945312
-0.0945077
-0.0943899
-0.094178
-0.0938723
-0.093473
-0.0929805
-0.0923953
-0.0917181
-0.0909494
-0.09009
-0.0891408
-0.0881028
-0.086977
-0.0857644
-0.0844664
-0.0830842
-0.0816191
-0.0800727
-0.0784465
-0.076742
-0.0749611
-0.0731055
-0.071177
-0.0691775
-0.067109
-0.0649737
-0.0627736
-0.060511
-0.058188
-0.055807
-0.0533704
-0.0508805
-0.04834
-0.0457513
-0.043117
-0.0404396
-0.037722
-0.0349668
-0.0321767
-0.0293546
-0.0265031
-0.0236253
-0.0207239
-0.0178019
-0.0148621
-0.0119075
-0.00894102
-0.00596564
-0.00298431
0
0
0.00397445
0.00794493
0.0119075
0.0158582
0.0197931
0.0237082
0.0275998
0.0314638
0.0352964
0.0390939
0.0428524
0.0465682
0.0502375
0.0538568
0.0574224
0.0609307
0.0643784
0.0677618
0.0710777
0.0743227
0.0774937
0.0805874
0.0836008
0.0865308
0.0893746
0.0921293
0.0947922
0.0973606
0.0998319
0.102204
0.104474
0.106639
0.108699
0.11065
0.112491
0.11422
0.115834
0.117334
0.118716
0.11998
0.121125
0.122148
0.12305
0.12383
0.124486
0.125017
0.125425
0.125707
0.125864
0.125895
0.125801
0.125581
0.125237
0.124767
0.124173
0.123456
0.122615
0.121652
0.120568
0.119363
0.11804
0.116599
0.115041
0.113369
0.111584
0.109688
0.107683
0.10557
0.103352
0.10103
0.0986085
0.0960884
0.0934724
0.0907633
0.0879637
0.0850764
0.0821043
0.0790504
0.0759177
0.0727093
0.0694284
0.0660783
0.0626624
0.0591839
0.0556465
0.0520536
0.0484089
0.0447158
0.0409782
0.0371998
0.0333843
0.0295354
0.0256572
0.0217534
0.0178279
0.0138846
0.00992745
0.00596043
0.00198747
-0.00198747
-0.00596043
-0.00992745
-0.0138846
-0.0178279
-0.0217534
-0.0256572
-0.0295354
-0.0333843
-0.0371998
-0.0409782
-0.0447158
-0.0484089
-0.0520536
-0.0556465
-0.0591839
-0.0626624
-0.0660783
-0.0694284
-0.0727093
-0.0759177
-0.0790504
-0.0821043
-0.0850764
-0.0879637
-0.0907633
-0.0934724
-0.0960884
-0.0986085
-0.10103
-0.103352
-0.10557
-0.107683
-0.109688
-0.111584
-0.113369
-0.115041
-0.116599
-0.11804
-0.119363
-0.120568
-0.121652
-0.122615
-0.123456
-0.124173
-0.124767
-0.125237
-0.125581
-0.125801
-0.125895
-0.125864
-0.125707
-0.125425
-0.125017
-0.124486
-0.12383
-0.12305
-0.122148
-0.121125
-0.11998
-0.118716
-0.117334
-0.115834
-0.11422
-0.112491
-0.11065
-0.108699
-0.106639
-0.104474
-0.102204
-0.0998319
-0.0973606
-0.0947922
-0.0921293
-0.0893746
-0.0865308
-0.0836008
-0.0805874
-0.0774937
-0.0743227
-0.0710777
-0.0677618
-0.0643784
-0.0609307
-0.0574224
-0.0538568
-0.0502375
-0.0465682
-0.0428524
-0.0390939
-0.0352964
-0.0314638
-0.0275998
-0.0237082
-0.0197931
-0.0158582
-0.0119075
-0.00794493
-0.00397445
0
0
0.00496062
0.0099163
0.0148621
0.0197931
0.0247043
0.029591
0.0344481
0.0392709
0.0440545
0.0487942
0.0534853
0.0581231
0.0627029
0.0672203
0.0716706
0.0760495
0.0803525
0.0845755
0.0887142
0.0927644
0.0967222
0.100584
0.104345
0.108002
0.111551
0.114989
0.118313
0.121519
0.124603
0.127563
0.130397
0.1331
0.13567
0.138106
0.140403
0.142561
0.144576
0.146448
0.148173
0.149751
0.151179
0.152457
0.153583
0.154556
0.155374
0.156038
0.156546
0.156898
0.157094
0.157133
0.157016
0.156742
0.156312
0.155726
0.154984
0.154088
0.153039
0.151837
0.150484
0.148981
0.147329
0.14553
0.143586
0.1415
0.139272
0.136905
0.134402
0.131765
0.128996
0.126099
0.123076
0.119931
0.116666
0.113284
0.10979
0.106186
0.102477
0.0986652
0.0947551
0.0907506
0.0866557
0.0824743
0.0782108
0.0738692
0.0694541
0.0649697
0.0604205
0.0558112
0.0511462
0.0464302
0.0416679
0.0368641
0.0320235
0.027151
0.0222515
0.0173297
0.0123907
0.00743939
0.00248062
-0.00248062
-0.00743939
-0.0123907
-0.0173297
-0.0222515
-0.027151
-0.0320235
-0.0368641
-0.0416679
-0.0464302
-0.0511462
-0.0558112
-0.0604205
-0.0649697
-0.0694541
-0.0738692
-0.0782108
-0.0824743
-0.0866557
-0.0907506
-0.0947551
-0.0986652
-0.102477
-0.106186
-0.10979
-0.113284
-0.116666
-0.119931
-0.123076
-0.126099
-0.128996
-0.131765
-0.134402
-0.136905
-0.139272
-0.1415
-0.143586
-0.14553
-0.147329
-0.148981
-0.150484
-0.151837
-0.153039
-0.154088
-0.154984
-0.155726
-0.156312
-0.156742
-0.157016
-0.157133
-0.157094
-0.156898
-0.156546
-0.156038
-0.155374
-0.154556
-0.153583
-0.152457
-0.151179
-0.149751
-0.148173
-0.146448
-0.144576
-0.142561
-0.140403
-0.138106
-0.13567
-0.1331
-0.130397
-0.127563
-0.124603
-0.121519
-0.118313
-0.114989
-0.111551
-0.108002
-0.104345
-0.100584
-0.0967222
-0.0927644
-0.0887142
-0.0845755
-0.0803525
-0.0760495
-0.0716706
-0.0672203
-0.0627029
-0.0581231
-0.0534853
-0.0487942
-0.0440545
-0.0392709
-0.0344481
-0.029591
-0.0247043
-0.0197931
-0.0148621
-0.0099163
-0.00496062
0
0
0.00594186
0.0118778
0.0178019
0.0237082
0.029591
0.0354442
0.0412621
0.0470388
0.0527687
0.0584459
0.064065
0.0696201
0.0751058
0.0805167
0.0858473
0.0910924
0.0962466
0.101305
0.106262
0.111114
0.115854
0.120479
0.124984
0.129365
0.133616
0.137735
0.141716
0.145556
0.14925
0.152796
0.15619
0.159428
0.162506
0.165423
0.168176
0.17076
0.173174
0.175416
0.177483
0.179372
0.181083
0.182614
0.183962
0.185127
0.186108
0.186903
0.187512
0.187934
0.188168
0.188215
0.188074
0.187746
0.187231
0.186529
0.185641
0.184568
0.183311
0.181871
0.18025
0.17845
0.176471
0.174317
0.171989
0.169489
0.16682
0.163985
0.160987
0.157828
0.154512
0.151042
0.147421
0.143654
0.139743
0.135692
0.131507
0.127191
0.122747
0.118182
0.113498
0.108701
0.103797
0.0987881
0.0936812
0.0884809
0.0831924
0.077821
0.072372
0.0668509
0.0612631
0.0556142
0.04991
0.0441559
0.0383579
0.0325216
0.0266529
0.0207576
0.0148417
0.00891093
0.0029713
-0.0029713
-0.00891093
-0.0148417
-0.0207576
-0.0266529
-0.0325216
-0.0383579
-0.0441559
-0.04991
-0.0556142
-0.0612631
-0.0668509
-0.072372
-0.077821
-0.0831924
-0.0884809
-0.0936812
-0.0987881
-0.103797
-0.108701
-0.113498
-0.118182
-0.122747
-0.127191
-0.131507
-0.135692
-0.139743
-0.143654
-0.147421
-0.151042
-0.154512
-0.157828
-0.160987
-0.163985
-0.16682
-0.169489
-0.171989
-0.174317
-0.176471
-0.17845
-0.18025
-0.181871
-0.183311
-0.184568
-0.185641
-0.186529
-0.187231
-0.187746
-0.188074
-0.188215
-0.188168
-0.187934
-0.187512
-0.186903
-0.186108
-0.185127
-0.183962
-0.182614
-0.181083
-0.179372
-0.177483
-0.175416
-0.173174
-0.17076
-0.168176
-0.165423
-0.162506
-0.159428
-0.15619
-0.152796
-0.14925
-0.145556
-0.141716
-0.137735
-0.133616
-0.129365
-0.124984
-0.120479
-0.115854
-0.111114
-0.106262
-0.101305
-0.0962466
-0.0910924
-0.0858473
-0.0805167
-0.0751058
-0.0696201
-0.064065
-0.0584459
-0.0527687
-0.0470388
-0.0412621
-0.0354442
-0.029591
-0.0237082
-0.0178019
-0.0118778
-0.00594186
0
0
0.00691717
0.0138274
0.0207239
0.0275998
0.0344481
0.0412621
0.0480349
0.0547599
0.0614303
0.0680394
0.0745807
0.0810477
0.0874339
0.0937329
0.0999385
0.106044
0.112045
0.117933
0.123704
0.129352
0.134871
0.140255
0.1455
0.150599
0.155549
0.160343
0.164977
0.169447
0.173748
0.177876
0.181827
0.185596
0.189181
0.192576
0.19578
0.198789
0.201599
0.204209
0.206615
0.208815
0.210807
0.212588
0.214158
0.215515
0.216656
0.217582
0.21829
0.218781
0.219054
0.219109
0.218945
0.218563
0.217963
0.217146
0.216112
0.214863
0.2134
0.211724
0.209837
0.207741
0.205438
0.202929
0.200219
0.197309
0.194203
0.190902
0.187412
0.183735
0.179874
0.175834
0.171619
0.167233
0.16268
0.157965
0.153093
0.148068
0.142895
0.13758
0.132128
0.126544
0.120834
0.115003
0.109058
0.103004
0.0968478
0.0905947
0.0842513
0.0778239
0.0713189
0.0647429
0.0581023
0.0514038
0.044654
0.0378598
0.0310278
0.0241649
0.0172778
0.0103736
0.00345901
-0.00345901
-0.0103736
-0.0172778
-0.0241649
-0.0310278
-0.0378598
-0.044654
-0.0514038
-0.0581023
-0.0647429
-0.0713189
-0.0778239
-0.0842513
-0.0905947
-0.0968478
-0.103004
-0.109058
-0.115003
-0.120834
-0.126544
-0.132128
-0.13758
-0.142895
-0.148068
-0.153093
-0.157965
-0.16268
-0.167233
-0.171619
-0.175834
-0.179874
-0.183735
-0.187412
-0.190902
-0.194203
-0.197309
-0.200219
-0.202929
-0.205438
-0.207741
-0.209837
-0.211724
-0.2134
-0.214863
-0.216112
-0.217146
-0.217963
-0.218563
-0.218945
-0.219109
-0.219054
-0.218781
-0.21829
-0.217582
-0.216656
-0.215515
-0.214158
-0.212588
-0.210807
-0.208815
-0.206615
-0.204209
-0.201599
-0.198789
-0.19578
-0.192576
-0.189181
-0.185596
-0.181827
-0.177876
-0.173748
-0.169447
-0.164977
-0.160343
-0.155549
-0.150599
-0.1455
-0.140255
-0.134871
-0.129352
-0.123704
-0.117933
-0.112045
-0.106044
-0.0999385
-0.0937329
-0.0874339
-0.0810477
-0.0745807
-0.0680394
-0.0614303
-0.0547599
-0.0480349
-0.0412621
-0.0344481
-0.0275998
-0.0207239
-0.0138274
-0.00691717
0
0
0.00788558
0.0157633
0.0236253
0.0314638
0.0392709
0.0470388
0.0547599
0.0624263
0.0700306
0.077565
0.0850221
0.0923945
0.0996748
0.106856
0.11393
0.120891
0.127731
0.134444
0.141023
0.147462
0.153753
0.159891
0.16587
0.171683
0.177326
0.182791
0.188074
0.19317
0.198074
0.202779
0.207283
0.21158
0.215666
0.219537
0.22319
0.22662
0.229824
0.232799
0.235541
0.238049
0.24032
0.242351
0.244141
0.245687
0.246988
0.248043
0.248851
0.249411
0.249722
0.249785
0.249598
0.249162
0.248478
0.247547
0.246368
0.244944
0.243276
0.241366
0.239215
0.236825
0.234199
0.23134
0.22825
0.224933
0.221391
0.217629
0.21365
0.209458
0.205057
0.200451
0.195646
0.190646
0.185456
0.180081
0.174526
0.168798
0.162901
0.156842
0.150626
0.14426
0.137751
0.131104
0.124327
0.117425
0.110407
0.103278
0.0960466
0.0887194
0.0813037
0.073807
0.0662367
0.0586004
0.0509057
0.0431602
0.0353717
0.027548
0.0196968
0.0118259
0.00394328
-0.00394328
-0.0118259
-0.0196968
-0.027548
-0.0353717
-0.0431602
-0.0509057
-0.0586004
-0.0662367
-0.073807
-0.0813037
-0.0887194
-0.0960466
-0.103278
-0.110407
-0.117425
-0.124327
-0.131104
-0.137751
-0.14426
-0.150626
-0.156842
-0.162901
-0.168798
-0.174526
-0.180081
-0.185456
-0.190646
-0.195646
-0.200451
-0.205057
-0.209458
-0.21365
-0.217629
-0.221391
-0.224933
-0.22825
-0.23134
-0.234199
-0.236825
-0.239215
-0.241366
-0.243276
-0.244944
-0.246368
-0.247547
-0.248478
-0.249162
-0.249598
-0.249785
-0.249722
-0.249411
-0.248851
-0.248043
-0.246988
-0.245687
-0.244141
-0.242351
-0.24032
-0.238049
-0.235541
-0.232799
-0.229824
-0.22662
-0.22319
-0.219537
-0.215666
-0.21158
-0.207283
-0.202779
-0.198074
-0.19317
-0.188074
-0.182791
-0.177326
-0.171683
-0.16587
-0.159891
-0.153753
-0.147462
-0.141023
-0.134444
-0.127731
-0.120891
-0.11393
-0.106856
-0.0996748
-0.0923945
-0.0850221
-0.077565
-0.0700306
-0.0624263
-0.0547599
-0.0470388
-0.0392709
-0.0314638
-0.0236253
-0.0157633
-0.00788558
0
0
0.00884614
0.0176835
0.0265031
0.0352964
0.0440545
0.0527687
0.0614303
0.0700306
0.0785611
0.0870133
0.0953788
0.103649
0.111816
0.119872
0.127808
0.135617
0.14329
0.150821
0.158201
0.165424
0.172482
0.179368
0.186075
0.192596
0.198926
0.205057
0.210984
0.216701
0.222201
0.22748
0.232533
0.237353
0.241937
0.24628
0.250377
0.254225
0.257819
0.261156
0.264233
0.267046
0.269594
0.271872
0.27388
0.275615
0.277074
0.278258
0.279164
0.279792
0.280141
0.280211
0.280002
0.279513
0.278746
0.277701
0.276379
0.274782
0.27291
0.270767
0.268354
0.265673
0.262727
0.25952
0.256054
0.252332
0.248359
0.244139
0.239675
0.234972
0.230035
0.224869
0.219478
0.213869
0.208047
0.202017
0.195785
0.189359
0.182744
0.175947
0.168974
0.161833
0.154531
0.147074
0.139471
0.131729
0.123855
0.115859
0.107746
0.0995264
0.0912074
0.0827975
0.0743051
0.0657386
0.0571066
0.0484176
0.0396804
0.0309036
0.0220961
0.0132664
0.00442362
-0.00442362
-0.0132664
-0.0220961
-0.0309036
-0.0396804
-0.0484176
-0.0571066
-0.0657386
-0.0743051
-0.0827975
-0.0912074
-0.0995264
-0.107746
-0.115859
-0.123855
-0.131729
-0.139471
-0.147074
-0.154531
-0.161833
-0.168974
-0.175947
-0.182744
-0.189359
-0.195785
-0.202017
-0.208047
-0.213869
-0.219478
-0.224869
-0.230035
-0.234972
-0.239675
-0.244139
-0.248359
-0.252332
-0.256054
-0.25952
-0.262727
-0.265673
-0.268354
-0.270767
-0.27291
-0.274782
-0.276379
-0.277701
-0.278746
-0.279513
-0.280002
-0.280211
-0.280141
-0.279792
-0.279164
-0.278258
-0.277074
-0.275615
-0.27388
-0.271872
-0.269594
-0.267046
-0.264233
-0.261156
-0.257819
-0.254225
-0.250377
-0.24628
-0.241937
-0.237353
-0.232533
-0.22748
-0.222201
-0.216701
-0.210984
-0.205057
-0.198926
-0.192596
-0.186075
-0.179368
-0.172482
-0.165424
-0.158201
-0.150821
-0.14329
-0.135617
-0.127808
-0.119872
-0.111816
-0.103649
-0.0953788
-0.0870133
-0.0785611
-0.0700306
-0.0614303
-0.0527687
-0.0440545
-0.0352964
-0.0265031
-0.0176835
-0.00884614
0
0
0.00979787
0.019586
0.0293546
0.0390939
0.0487942
0.0584459
0.0680394
0.077565
0.0870133
0.0963749
0.10564
0.114801
0.123846
0.132769
0.141559
0.150208
0.158707
0.167048
0.175222
0.183222
0.191039
0.198665
0.206094
0.213317
0.220328
0.227119
0.233683
0.240015
0.246107
0.251954
0.25755
0.262889
0.267966
0.272776
0.277314
0.281576
0.285557
0.289253
0.292661
0.295777
0.298599
0.301123
0.303346
0.305267
0.306884
0.308195
0.309199
0.309895
0.310281
0.310359
0.310126
0.309585
0.308736
0.307578
0.306114
0.304345
0.302272
0.299898
0.297225
0.294256
0.290993
0.287441
0.283602
0.27948
0.27508
0.270405
0.265461
0.260252
0.254784
0.249062
0.243091
0.236879
0.23043
0.223751
0.21685
0.209732
0.202405
0.194876
0.187154
0.179244
0.171156
0.162897
0.154476
0.145901
0.137181
0.128324
0.119338
0.110234
0.10102
0.0917056
0.0822994
0.0728113
0.0632506
0.0536268
0.0439495
0.0342285
0.0244733
0.0146938
0.00489955
-0.00489955
-0.0146938
-0.0244733
-0.0342285
-0.0439495
-0.0536268
-0.0632506
-0.0728113
-0.0822994
-0.0917056
-0.10102
-0.110234
-0.119338
-0.128324
-0.137181
-0.145901
-0.154476
-0.162897
-0.171156
-0.179244
-0.187154
-0.194876
-0.202405
-0.209732
-0.21685
-0.223751
-0.23043
-0.236879
-0.243091
-0.249062
-0.254784
-0.260252
-0.265461
-0.270405
-0.27508
-0.27948
-0.283602
-0.287441
-0.290993
-0.294256
-0.297225
-0.299898
-0.302272
-0.304345
-0.306114
-0.307578
-0.308736
-0.309585
-0.310126
-0.310359
-0.310281
-0.309895
-0.309199
-0.308195
-0.306884
-0.305267
-0.303346
-0.301123
-0.298599
-0.295777
-0.292661
-0.289253
-0.285557
-0.281576
-0.277314
-0.272776
-0.267966
-0.262889
-0.25755
-0.251954
-0.246107
-0.240015
-0.233683
-0.227119
-0.220328
-0.213317
-0.206094
-0.198665
-0.191039
-0.183222
-0.175222
-0.167048
-0.158707
-0.150208
-0.141559
-0.132769
-0.123846
-0.114801
-0.10564
-0.0963749
-0.0870133
-0.077565
-0.0680394
-0.0584459
-0.0487942
-0.0390939
-0.0293546
-0.019586
-0.00979787
0
0
0.0107398
0.021469
0.0321767
0.0428524
0.0534853
0.064065
0.0745807
0.0850221
0.0953788
0.10564
0.115797
0.125838
0.135753
0.145533
0.155168
0.164649
0.173965
0.183108
0.192068
0.200837
0.209405
0.217765
0.225908
0.233826
0.24151
0.248954
0.25615
0.26309
0.269768
0.276177
0.282311
0.288164
0.293729
0.299001
0.303975
0.308647
0.31301
0.317062
0.320798
0.324214
0.327306
0.330073
0.33251
0.334616
0.336388
0.337825
0.338925
0.339688
0.340112
0.340196
0.339942
0.339349
0.338417
0.337149
0.335544
0.333604
0.331332
0.32873
0.3258
0.322546
0.31897
0.315076
0.310867
0.306349
0.301526
0.296402
0.290982
0.285273
0.279279
0.273007
0.266462
0.259652
0.252583
0.245263
0.237698
0.229896
0.221864
0.213612
0.205147
0.196477
0.187611
0.178558
0.169328
0.159928
0.150369
0.140661
0.130812
0.120832
0.110732
0.100522
0.0902117
0.0798114
0.0693315
0.0587825
0.0481749
0.0375192
0.0268262
0.0161064
0.00537059
-0.00537059
-0.0161064
-0.0268262
-0.0375192
-0.0481749
-0.0587825
-0.0693315
-0.0798114
-0.0902117
-0.100522
-0.110732
-0.120832
-0.130812
-0.140661
-0.150369
-0.159928
-0.169328
-0.178558
-0.187611
-0.196477
-0.205147
-0.213612
-0.221864
-0.229896
-0.237698
-0.245263
-0.252583
-0.259652
-0.266462
-0.273007
-0.279279
-0.285273
-0.290982
-0.296402
-0.301526
-0.306349
-0.310867
-0.315076
-0.31897
-0.322546
-0.3258
-0.32873
-0.331332
-0.333604
-0.335544
-0.337149
-0.338417
-0.339349
-0.339942
-0.340196
-0.340112
-0.339688
-0.338925
-0.337825
-0.336388
-0.334616
-0.33251
-0.330073
-0.327306
-0.324214
-0.320798
-0.317062
-0.31301
-0.308647
-0.303975
-0.299001
-0.293729
-0.288164
-0.282311
-0.276177
-0.269768
-0.26309
-0.25615
-0.248954
-0.24151
-0.233826
-0.225908
-0.217765
-0.209405
-0.200837
-0.192068
-0.183108
-0.173965
-0.164649
-0.155168
-0.145533
-0.135753
-0.125838
-0.115797
-0.10564
-0.0953788
-0.0850221
-0.0745807
-0.064065
-0.0534853
-0.0428524
-0.0321767
-0.021469
-0.0107398
0
0
0.0116711
0.0233306
0.0349668
0.0465682
0.0581231
0.0696201
0.0810477
0.0923945
0.103649
0.114801
0.125838
0.136749
0.147524
0.158152
0.168623
0.178925
0.189049
0.198985
0.208722
0.218251
0.227563
0.236648
0.245497
0.254101
0.262452
0.270541
0.278361
0.285903
0.29316
0.300125
0.306791
0.313151
0.319198
0.324928
0.330334
0.33541
0.340152
0.344555
0.348614
0.352326
0.355687
0.358694
0.361342
0.363631
0.365557
0.367118
0.368314
0.369143
0.369603
0.369695
0.369419
0.368774
0.367762
0.366383
0.364639
0.362532
0.360063
0.357235
0.354051
0.350514
0.346628
0.342396
0.337823
0.332913
0.327672
0.322103
0.316214
0.310009
0.303496
0.296679
0.289568
0.282167
0.274485
0.26653
0.258309
0.24983
0.241102
0.232134
0.222935
0.213513
0.203879
0.194041
0.18401
0.173796
0.163408
0.152857
0.142154
0.13131
0.120334
0.109239
0.0980341
0.0867319
0.0753433
0.0638796
0.0523521
0.0407726
0.0291523
0.017503
0.00583628
-0.00583628
-0.017503
-0.0291523
-0.0407726
-0.0523521
-0.0638796
-0.0753433
-0.0867319
-0.0980341
-0.109239
-0.120334
-0.13131
-0.142154
-0.152857
-0.163408
-0.173796
-0.18401
-0.194041
-0.203879
-0.213513
-0.222935
-0.232134
-0.241102
-0.24983
-0.258309
-0.26653
-0.274485
-0.282167
-0.289568
-0.296679
-0.303496
-0.310009
-0.316214
-0.322103
-0.327672
-0.332913
-0.337823
-0.342396
-0.346628
-0.350514
-0.354051
-0.357235
-0.360063
-0.362532
-0.364639
-0.366383
-0.367762
-0.368774
-0.369419
-0.369695
-0.369603
-0.369143
-0.368314
-0.367118
-0.365557
-0.363631
-0.361342
-0.358694
-0.355687
-0.352326
-0.348614
-0.344555
-0.340152
-0.33541
-0.330334
-0.324928
-0.319198
-0.313151
-0.306791
-0.300125
-0.29316
-0.285903
-0.278361
-0.270541
-0.262452
-0.254101
-0.245497
-0.236648
-0.227563
-0.218251
-0.208722
-0.198985
-0.189049
-0.178925
-0.168623
-0.158152
-0.147524
-0.136749
-0.125838
-0.114801
-0.103649
-0.0923945
-0.0810477
-0.0696201
-0.0581231
-0.0465682
-0.0349668
-0.0233306
-0.0116711
0
0
0.0125907
0.0251689
0.037722
0.0502375
0.0627029
0.0751058
0.0874339
0.0996748
0.111816
0.123846
0.135753
0.147524
0.159149
0.170614
0.18191
0.193024
0.203946
0.214664
0.225169
0.235449
0.245494
0.255295
0.264841
0.274123
0.283132
0.291859
0.300294
0.308431
0.31626
0.323773
0.330964
0.337825
0.34435
0.350531
0.356362
0.361839
0.366954
0.371704
0.376084
0.380088
0.383714
0.386957
0.389814
0.392283
0.394361
0.396046
0.397335
0.398229
0.398726
0.398826
0.398527
0.397832
0.39674
0.395253
0.393371
0.391097
0.388434
0.385383
0.381949
0.378133
0.373941
0.369375
0.364442
0.359145
0.353491
0.347483
0.34113
0.334437
0.32741
0.320056
0.312384
0.3044
0.296113
0.287531
0.278662
0.269516
0.2601
0.250426
0.240501
0.230337
0.219944
0.209331
0.198509
0.18749
0.176284
0.164902
0.153356
0.141656
0.129816
0.117846
0.105759
0.093566
0.08128
0.068913
0.0564773
0.0439852
0.0314494
0.0188822
0.00629615
-0.00629615
-0.0188822
-0.0314494
-0.0439852
-0.0564773
-0.068913
-0.08128
-0.093566
-0.105759
-0.117846
-0.129816
-0.141656
-0.153356
-0.164902
-0.176284
-0.18749
-0.198509
-0.209331
-0.219944
-0.230337
-0.240501
-0.250426
-0.2601
-0.269516
-0.278662
-0.287531
-0.296113
-0.3044
-0.312384
-0.320056
-0.32741
-0.334437
-0.34113
-0.347483
-0.353491
-0.359145
-0.364442
-0.369375
-0.373941
-0.378133
-0.381949
-0.385383
-0.388434
-0.391097
-0.393371
-0.395253
-0.39674
-0.397832
-0.398527
-0.398826
-0.398726
-0.398229
-0.397335
-0.396046
-0.394361
-0.392283
-0.389814
-0.386957
-0.383714
-0.380088
-0.376084
-0.371704
-0.366954
-0.361839
-0.356362
-0.350531
-0.34435
-0.337825
-0.330964
-0.323773
-0.31626
-0.308431
-0.300294
-0.291859
-0.283132
-0.274123
-0.264841
-0.255295
-0.245494
-0.235449
-0.225169
-0.214664
-0.203946
-0.193024
-0.18191
-0.170614
-0.159149
-0.147524
-0.135753
-0.123846
-0.111816
-0.0996748
-0.0874339
-0.0751058
-0.0627029
-0.0502375
-0.037722
-0.0251689
-0.0125907
0
0
0.0134978
0.0269822
0.0404396
0.0538568
0.0672203
0.0805167
0.0937329
0.106856
0.119872
0.132769
0.145533
0.158152
0.170614
0.182906
0.195015
0.20693
0.218639
0.230129
0.241391
0.252411
0.26318
0.273687
0.283921
0.293872
0.30353
0.312885
0.321929
0.330651
0.339044
0.347099
0.354808
0.362163
0.369158
0.375784
0.382036
0.387907
0.393391
0.398483
0.403178
0.407471
0.411358
0.414835
0.417898
0.420545
0.422772
0.424578
0.425961
0.426919
0.427452
0.427558
0.427239
0.426493
0.425322
0.423728
0.421711
0.419273
0.416418
0.413148
0.409465
0.405375
0.400881
0.395986
0.390698
0.385019
0.378957
0.372517
0.365706
0.35853
0.350997
0.343114
0.334889
0.32633
0.317446
0.308246
0.298738
0.288932
0.278839
0.268467
0.257828
0.246932
0.235789
0.224412
0.212811
0.200998
0.188984
0.176782
0.164404
0.151862
0.139168
0.126336
0.113378
0.100307
0.0871357
0.0738777
0.0605461
0.0471541
0.0337151
0.0202425
0.00674975
-0.00674975
-0.0202425
-0.0337151
-0.0471541
-0.0605461
-0.0738777
-0.0871357
-0.100307
-0.113378
-0.126336
-0.139168
-0.151862
-0.164404
-0.176782
-0.188984
-0.200998
-0.212811
-0.224412
-0.235789
-0.246932
-0.257828
-0.268467
-0.278839
-0.288932
-0.298738
-0.308246
-0.317446
-0.32633
-0.334889
-0.343114
-0.350997
-0.35853
-0.365706
-0.372517
-0.378957
-0.385019
-0.390698
-0.395986
-0.400881
-0.405375
-0.409465
-0.413148
-0.416418
-0.419273
-0.421711
-0.423728
-0.425322
-0.426493
-0.427239
-0.427558
-0.427452
-0.426919
-0.425961
-0.424578
-0.422772
-0.420545
-0.417898
-0.414835
-0.411358
-0.407471
-0.403178
-0.398483
-0.393391
-0.387907
-0.382036
-0.375784
-0.369158
-0.362163
-0.354808
-0.347099
-0.339044
-0.330651
-0.321929
-0.312885
-0.30353
-0.293872
-0.283921
-0.273687
-0.26318
-0.252411
-0.241391
-0.230129
-0.218639
-0.20693
-0.195015
-0.182906
-0.170614
-0.158152
-0.145533
-0.132769
-0.119872
-0.106856
-0.0937329
-0.0805167
-0.0672203
-0.0538568
-0.0404396
-0.0269822
-0.0134978
0
0
0.0143914
0.0287685
0.043117
0.0574224
0.0716706
0.0858473
0.0999385
0.11393
0.127808
0.141559
0.155168
0.168623
0.18191
0.195015
0.207926
0.22063
0.233114
0.245365
0.257372
0.269122
0.280604
0.291806
0.302718
0.313328
0.323625
0.3336
0.343242
0.352542
0.361491
0.370079
0.378298
0.386141
0.393598
0.400663
0.407329
0.413588
0.419435
0.424865
0.42987
0.434448
0.438592
0.442299
0.445565
0.448387
0.450762
0.452687
0.454162
0.455183
0.455751
0.455865
0.455524
0.454729
0.453481
0.451781
0.44963
0.447031
0.443987
0.4405
0.436574
0.432213
0.427421
0.422203
0.416564
0.41051
0.404046
0.39718
0.389918
0.382267
0.374235
0.36583
0.357061
0.347935
0.338463
0.328653
0.318516
0.308061
0.297299
0.286241
0.274897
0.26328
0.2514
0.239269
0.2269
0.214305
0.201496
0.188486
0.175288
0.161916
0.148382
0.1347
0.120884
0.106948
0.0929045
0.0787688
0.0645545
0.0502759
0.0359472
0.0215827
0.00719662
-0.00719662
-0.0215827
-0.0359472
-0.0502759
-0.0645545
-0.0787688
-0.0929045
-0.106948
-0.120884
-0.1347
-0.148382
-0.161916
-0.175288
-0.188486
-0.201496
-0.214305
-0.2269
-0.239269
-0.2514
-0.26328
-0.274897
-0.286241
-0.297299
-0.308061
-0.318516
-0.328653
-0.338463
-0.347935
-0.357061
-0.36583
-0.374235
-0.382267
-0.389918
-0.39718
-0.404046
-0.41051
-0.416564
-0.422203
-0.427421
-0.432213
-0.436574
-0.4405
-0.443987
-0.447031
-0.44963
-0.451781
-0.453481
-0.454729
-0.455524
-0.455865
-0.455751
-0.455183
-0.454162
-0.452687
-0.450762
-0.448387
-0.445565
-0.442299
-0.438592
-0.434448
-0.42987
-0.424865
-0.419435
-0.413588
-0.407329
-0.400663
-0.393598
-0.386141
-0.378298
-0.370079
-0.361491
-0.352542
-0.343242
-0.3336
-0.323625
-0.313328
-0.302718
-0.291806
-0.280604
-0.269122
-0.257372
-0.245365
-0.233114
-0.22063
-0.207926
-0.195015
-0.18191
-0.168623
-0.155168
-0.141559
-0.127808
-0.11393
-0.0999385
-0.0858473
-0.0716706
-0.0574224
-0.043117
-0.0287685
-0.0143914
0
0
0.0152707
0.0305262
0.0457513
0.0609307
0.0760495
0.0910924
0.106044
0.120891